ITEM: TIMESTEP
0
ITEM: NUMBER OF ATOMS
{{n_rough_pack}}
ITEM: BOX BOUNDS {{bound_conds}}
{{x_b.min}} {{x_b.max}}
{{y_b.min}} {{y_b.max}}
{{z_b.min}} {{z_b.max}}
ITEM: ATOMS id type x y z
{% for peb in peb_list -%}
{{peb.id}} 1 {{peb.x}} {{peb.y}} {{peb.z}}
{% endfor -%}
