ITEM: TIMESTEP
{{params.timestep}}
ITEM: NUMBER OF ATOMS
{{params.n_pebbles}}
ITEM: BOX BOUNDS {{params.boundary}}
{{params.xb_min}} {{params.xb_max}}
{{params.yb_min}} {{params.yb_max}}
{{params.zb_min}} {{params.zb_max}}
ITEM: ATOMS id type x y z
{% for peb in params.coords -%}
{{peb.id}} 1 {{peb.x}} {{peb.y}} {{peb.z}}
{% endfor -%}
